<?xml version="1.0" ?>
<VTKFile byte_order="LittleEndian" type="ImageData" version="0.1">
	<ImageData Origin="-0.500000 -1.000000 0.000000" Spacing="1.000000 2.000000 0.000000" WholeExtent="0 2 0 3 0 0">
		<Piece Extent="0 2 0 3 0 0">
			<PointData>
				<DataArray Name="Elevation" NumberOfComponents="1" format="ascii" type="Float64">0.0 1.0 2.0 3.0 4.0 5.0 6.0 7.0 8.0 9.0 10.0 11.0</DataArray>
			</PointData>
			<CellData>
				<DataArray Name="Cell Elevation" NumberOfComponents="1" format="ascii" type="Float64">1.0 2.0 3.0 4.0 5.0 6.0</DataArray>
			</CellData>
		</Piece>
	</ImageData>
</VTKFile>
